                               Psi4 1.3a1.dev104

  ==> Input File <==

--------------------------------------------------------------------------
memory 1 GB

molecule h2o {
0 1
N
N 1 2.8
}

set basis aug-cc-pvdz
set guess gwh
set scf_type pk
set df_basis_guess true
set DIIS false
set reference rhf
set stability_analysis check
energy('scf')
--------------------------------------------------------------------------

    Molecular point group: d2h

    Geometry (in Angstrom), charge = 0, multiplicity = 1:

       Center              X                  Y                   Z               Mass
    ------------   -----------------  -----------------  -----------------  -----------------
         N            0.000000000000     0.000000000000    -1.400000000000    14.003074004780
         N            0.000000000000     0.000000000000     1.400000000000    14.003074004780

  Charge       = 0
  Multiplicity = 1
  Basis Set: AUG-CC-PVDZ
    Blend: AUG-CC-PVDZ

    Orbital Energies [Eh]
    ---------------------

    Doubly Occupied:

       1Ag   -15.861323     1B1u  -15.861223     2Ag    -1.064405
       2B1u   -1.033555     3Ag    -0.402693     1B2u   -0.368079
       1B3u   -0.368079

  @RHF Final Energy:  -108.06311157796874

   => Energetics <=

    Nuclear Repulsion Energy =              9.2606011503249999
    One-Electron Energy =                -164.7287103009075508
    Two-Electron Energy =                  47.4049975726138229
    Total Energy =                       -108.0631115779687406

  Dipole Moment: [D]
     X:     0.0000      Y:     0.0000      Z:    -0.0000     Total:     0.0000

*** Psi4 exiting successfully. Buy a developer a beer!
