                               Psi4 1.2.1 release

  ==> Input File <==

--------------------------------------------------------------------------
memory 2 GB

molecule h2o {
0 1
O
H 1 1.1
H 1 1.1 2 104
}

set basis aug-cc-pvdz
set scf {
    e_convergence 1e-12
    d_convergence 1e-10
    scf_type pk
}

energy('scf')
--------------------------------------------------------------------------

    Molecular point group: c2v

    Geometry (in Angstrom), charge = 0, multiplicity = 1:

       Center              X                  Y                   Z               Mass
    ------------   -----------------  -----------------  -----------------  -----------------
         O            0.000000000000     0.000000000000    -0.075791843589    15.994914619560
         H            0.000000000000    -0.866811828967     0.601435779270     1.007825032070
         H            0.000000000000     0.866811828967     0.601435779270     1.007825032070

  Charge       = 0
  Multiplicity = 1
  Basis Set: AUG-CC-PVDZ
    Blend: AUG-CC-PVDZ

    Orbital Energies [Eh]
    ---------------------

    Doubly Occupied:

       1A1   -20.599232     2A1    -1.295405     1B2    -0.647571
       3A1    -0.559004     1B1    -0.500316

  @RHF Final Energy:   -76.00335402330548

   => Energetics <=

    Nuclear Repulsion Energy =              8.0023664507190784
    One-Electron Energy =                -120.8083816669400079
    Two-Electron Energy =                  36.8026611929154583
    Total Energy =                        -76.0033540233054623

  Dipole Moment: [D]
     X:     0.0000      Y:     0.0000      Z:     2.1083     Total:     2.1083

*** Psi4 exiting successfully. Buy a developer a beer!
