                               Psi4 1.2.1 release

  ==> Input File <==

--------------------------------------------------------------------------
memory 1 GB

molecule h2o {
0 1
O
H 1 0.968
H 1 0.968 2 104.5
}

set reference rhf
set basis aug-cc-pvtz
set guess core
set scf_type pk
set df_basis_guess false
set freeze_core false
set DIIS true
set E_CONVERGENCE 1E-10
set D_CONVERGENCE 1E-8
energy('scf')
--------------------------------------------------------------------------

    Molecular point group: c2v

    Geometry (in Angstrom), charge = 0, multiplicity = 1:

       Center              X                  Y                   Z               Mass
    ------------   -----------------  -----------------  -----------------  -----------------
         O            0.000000000000     0.000000000000    -0.066323700292    15.994914619560
         H            0.000000000000    -0.765387507384     0.526302626781     1.007825032070
         H            0.000000000000     0.765387507384     0.526302626781     1.007825032070

  Charge       = 0
  Multiplicity = 1
  Basis Set: AUG-CC-PVTZ
    Blend: AUG-CC-PVTZ

    Orbital Energies [Eh]
    ---------------------

    Doubly Occupied:

       1A1   -20.569092     2A1    -1.348113     1B2    -0.711950
       3A1    -0.582910     1B1    -0.509485

  @RHF Final Energy:   -76.05968811066687

   => Energetics <=

    Nuclear Repulsion Energy =              9.0924230681529608
    One-Electron Energy =                -122.8611219777065315
    Two-Electron Energy =                  37.7090107988866947
    Total Energy =                        -76.0596881106668690

  Dipole Moment: [D]
     X:     0.0000      Y:     0.0000      Z:     1.9916     Total:     1.9916

*** Psi4 exiting successfully. Buy a developer a beer!
